data_global
_chemical_name_mineral 'Beryl'
loop_
_publ_author_name
'Aurisicchio C'
'Fioravanti G'
'Grubessi O'
'Zanazzi P F'
_journal_name_full 'American Mineralogist'
_journal_volume 73 
_journal_year 1988
_journal_page_first 826
_journal_page_last 837
_publ_section_title
;
 Reappraisal of the crystal chemistry of beryl
 Sample: 24
 Note: U(1,2) for Na altered to match symmetry constraints.
;
_database_code_amcsd 0001176
_chemical_compound_source 'Morrua, Zambesia'
_chemical_formula_sum 'Si6.009 Be2.898 Li.015 Al1.758 Fe.064 Mg.258 O18.9 Na.243 H.9'
_cell_length_a 9.2367
_cell_length_b 9.2367
_cell_length_c 9.1903
_cell_angle_alpha 90
_cell_angle_beta 90
_cell_angle_gamma 120
_cell_volume 679.038
_exptl_crystal_density_diffrn      2.744
_symmetry_space_group_name_H-M 'P 6/m c c'
loop_
_space_group_symop_operation_xyz
  'x,y,z'
  '-x,-x+y,1/2+z'
  'x,x-y,1/2-z'
  '-x+y,-x,-z'
  'x-y,x,z'
  '-y,-x,1/2+z'
  'y,x,1/2-z'
  'y,-x+y,-z'
  '-y,x-y,z'
  'x-y,-y,1/2+z'
  '-x+y,y,1/2-z'
  'x,y,-z'
  '-x,-y,z'
  'x,x-y,1/2+z'
  '-x,-x+y,1/2-z'
  'x-y,x,-z'
  '-x+y,-x,z'
  'y,x,1/2+z'
  '-y,-x,1/2-z'
  '-y,x-y,-z'
  'y,-x+y,z'
  '-x+y,y,1/2+z'
  'x-y,-y,1/2-z'
  '-x,-y,-z'
loop_
_atom_site_label
_atom_site_fract_x
_atom_site_fract_y
_atom_site_fract_z
_atom_site_occupancy
_atom_site_U_iso_or_equiv
Si1   0.38670   0.11420   0.00000   1.00000 ?
Be   0.50000   0.00000   0.25000   0.96600   0.00600
Li   0.50000   0.00000   0.25000   0.00500   0.00600
Si2   0.50000   0.00000   0.25000   0.00300   0.00600
Al1   0.50000   0.00000   0.25000   0.02600   0.00600
Al2   0.66667   0.33333   0.25000   0.84000 ?
Fe   0.66667   0.33333   0.25000   0.03200 ?
Mg   0.66667   0.33333   0.25000   0.12900 ?
O1   0.30700   0.23320   0.00000   1.00000 ?
O2   0.49680   0.14420   0.14520   1.00000 ?
O-H   0.00000   0.00000   0.00000   0.90000 ?
Na   0.00000   0.00000   0.25000   0.24300 ?
loop_
_atom_site_aniso_label
_atom_site_aniso_U_11
_atom_site_aniso_U_22
_atom_site_aniso_U_33
_atom_site_aniso_U_12
_atom_site_aniso_U_13
_atom_site_aniso_U_23
Si1 0.00450 0.00450 0.00340 0.00230 0.00000 0.00000
Al2 0.00420 0.00420 0.00390 0.00210 0.00000 0.00000
Fe 0.00420 0.00420 0.00390 0.00210 0.00000 0.00000
Mg 0.00420 0.00420 0.00390 0.00210 0.00000 0.00000
O1 0.01220 0.01080 0.01510 0.00900 0.00000 0.00000
O2 0.01070 0.00940 0.00530 0.00590 -0.00260 -0.00040
Na 0.03930 0.03930 0.02560 0.01965 0.00000 0.00000

